 Q-Chem 6.0 (devel), Q-Chem, Inc., Pleasanton, CA (2022)
 Q-Chem 6.0.2 for Intel X86 EM64T Linux

User input:
--------------------------------------------------------------
$comment
Calcium diradical on an acetylen bridge Ca-CC-Ca.

Geometry: J. Phys. Chem. Lett. 2020, 11, 4, 1297--1304

molecule: charge = +2, multiplicity = 1
$end

$molecule
2 1
Ca 0.0000000000 0.0000000000 -1.1942571725
C  0.0000000000 0.0000000000  1.1148209748
C  0.0000000000 0.0000000000  2.3634057834
Ca 0.0000000000 0.0000000000  4.6730304143
$end

$rem
  method = eom-ccsd
  dea_singlets = [1, 0, 1, 1]
  dea_triplets = [1, 0, 1, 1]
  basis = 6-311G
  eom_nguess_doubles = 5
! state properties
  cc_eom_prop = true
! transition properties
  cc_trans_prop = 2
$end
--------------------------------------------------------------

             Standard Nuclear Orientation (Angstroms)
    I     Atom           X                Y                Z
 ----------------------------------------------------------------
    1      Ca      0.0000000000     0.0000000000    -2.9335807376
    2      C       0.0000000000     0.0000000000    -0.6245025903
    3      C       0.0000000000     0.0000000000     0.6240822183
    4      Ca      0.0000000000     0.0000000000     2.9337068492
 ----------------------------------------------------------------

   12   -1428.6911761633      4.58e-09  Convergence criterion met
 Total energy in the final basis set =    -1428.6911761633
 CCSD total energy          = -1428.89350695
        Solving for EOMDEA-CCSD A1 transitions to singlet states
 EOMDEA-CCSD transition 1/A1
 Total energy = -1429.35822213 a.u.  Excitation energy = -12.6455 eV.
 Excited state properties for  EOMDEA-CCSD/MP2 transition 1/A1
        Solving for EOMDEA-CCSD B1 transitions to singlet states
 EOMDEA-CCSD transition 1/B1
 Total energy = -1429.27750039 a.u.  Excitation energy = -10.4490 eV.
 Excited state properties for  EOMDEA-CCSD/MP2 transition 1/B1
        Solving for EOMDEA-CCSD B2 transitions to singlet states
 EOMDEA-CCSD transition 1/B2
 Total energy = -1429.27750039 a.u.  Excitation energy = -10.4490 eV.
 Excited state properties for  EOMDEA-CCSD/MP2 transition 1/B2
        Solving for EOMDEA-CCSD A1 transitions to triplet states
 EOMDEA-CCSD transition 1/A1
 Total energy = -1429.35798581 a.u.  Excitation energy = -12.6391 eV.
 Excited state properties for  EOMDEA-CCSD/MP2 transition 1/A1
        Solving for EOMDEA-CCSD B1 transitions to triplet states
 EOMDEA-CCSD transition 1/B1
 Total energy = -1429.27851024 a.u.  Excitation energy = -10.4765 eV.
 Excited state properties for  EOMDEA-CCSD/MP2 transition 1/B1
        Solving for EOMDEA-CCSD B2 transitions to triplet states
 EOMDEA-CCSD transition 1/B2
 Total energy = -1429.27851024 a.u.  Excitation energy = -10.4765 eV.
 Excited state properties for  EOMDEA-CCSD/MP2 transition 1/B2

             Orbital Energies (a.u.) and Symmetries
 --------------------------------------------------------------

 Alpha MOs, Restricted
 -- Occupied --
-149.68 -149.68  -17.13  -17.13  -13.94  -13.94  -13.94  -13.94
  1 A1    2 A1    3 A1    4 A1    5 A1    6 A1    1 B1    1 B2
-13.943 -13.943 -11.380 -11.378  -2.555  -2.555  -1.657  -1.657
  2 B1    2 B2    7 A1    8 A1    9 A1   10 A1    3 B1    3 B2
 -1.657  -1.657  -1.653  -1.652  -1.158  -0.736  -0.632  -0.550
  4 B1    4 B2   11 A1   12 A1   13 A1   14 A1   15 A1    5 B1
 -0.550
  5 B2

 Beta MOs, Restricted
 -- Occupied --
-149.68 -149.68  -17.13  -17.13  -13.94  -13.94  -13.94  -13.94
  1 A1    2 A1    3 A1    4 A1    5 A1    6 A1    1 B1    1 B2
-13.943 -13.943 -11.380 -11.378  -2.555  -2.555  -1.657  -1.657
  2 B1    2 B2    7 A1    8 A1    9 A1   10 A1    3 B1    3 B2
 -1.657  -1.657  -1.653  -1.652  -1.158  -0.736  -0.632  -0.550
  4 B1    4 B2   11 A1   12 A1   13 A1   14 A1   15 A1    5 B1
 -0.550
  5 B2

          Ground-State Mulliken Net Atomic Charges

     Atom                 Charge (a.u.)
  ----------------------------------------
      1 Ca                    1.894464
      2 C                    -0.894719
      3 C                    -0.894051
      4 Ca                    1.894307
  ----------------------------------------
  Sum of atomic charges =     2.000000

                    Cartesian Multipole Moments
 -----------------------------------------------------------------
    Charge (ESU x 10^10)
                 9.6064
    Dipole Moment (Debye)
         X      -0.0000      Y       0.0000      Z       0.0034
       Tot       0.0034
    Quadrupole Moments (Debye-Ang)
        XX     -32.4660     XY      -0.0000     YY     -32.4660
        XZ      -0.0000     YZ      -0.0000     ZZ     113.3216

 Total job time:  78.34s(wall), 397.63s(cpu)
        *  Thank you very much for using Q-Chem.  Have a nice day.  *
