 Q-Chem 6.0 (devel), Q-Chem, Inc., Pleasanton, CA (2022)
 Q-Chem 6.0.2 for Intel X86 EM64T Linux

User input:
--------------------------------------------------------------
$comment
Calcium monohydoxide radical CaOH.

Geometry: J. Phys. Chem. A 2002, 106, 41, 9595--9599

molecule: charge = +1, multiplicity = 1
$end

$molecule
1 1
    Ca
    O Ca rCaO
    H O rOH Ca angle

    rCaO = 1.9778
    rOH = 0.9520
    angle = 180
$end

$rem
  method = eom-ccsd
  ea_states = [1, 0, 1, 1]
  basis = 6-311G
! state properties
  cc_eom_prop = true
  cc_eom_prop_te = true
! transition properties
  cc_trans_prop = 2
! Dyson orbitals
  cc_do_dyson = true
  print_general_basis = true
$end
--------------------------------------------------------------

             Standard Nuclear Orientation (Angstroms)
    I     Atom           X                Y                Z
 ----------------------------------------------------------------
    1      Ca      0.0000000000    -0.0000000000    -0.6466275862
    2      O       0.0000000000    -0.0000000000     1.3311724138
    3      H       0.0000000000     0.0000000000     2.2831724138
 ----------------------------------------------------------------

   11    -752.0212725621      7.86e-09  Convergence criterion met
 Total energy in the final basis set =     -752.0212725621
 CCSD total energy          = -752.16356922
        Solving for EOMEA-CCSD/MP2 A1 transitions.
 EOMEA transition 1/A1
 Total energy = -752.36469715 a.u.  Excitation energy = -5.4730 eV.
 EOMEA-CCSD/MP2 transition 1/A1
 Excited state properties for  EOMEA-CCSD transition 1/A1
        Solving for EOMEA-CCSD/MP2 B1 transitions.
 EOMEA transition 1/B1
 Total energy = -752.27152489 a.u.  Excitation energy = -2.9376 eV.
 EOMEA-CCSD/MP2 transition 1/B1
 Excited state properties for  EOMEA-CCSD transition 1/B1
        Solving for EOMEA-CCSD/MP2 B2 transitions.
 EOMEA transition 1/B2
 Total energy = -752.27152490 a.u.  Excitation energy = -2.9376 eV.
 EOMEA-CCSD/MP2 transition 1/B2
 Excited state properties for  EOMEA-CCSD transition 1/B2
 EOM-EA-CCSD state  1/A1 -- Reference  transition
 EOM-EA-CCSD state  1/B1 -- Reference  transition
 EOM-EA-CCSD state  1/B2 -- Reference  transition

             Orbital Energies (a.u.) and Symmetries
 --------------------------------------------------------------

 Alpha MOs, Restricted
 -- Occupied --
-149.58  -20.58  -17.04  -13.85  -13.85  -13.85   -2.46   -1.58
  1 A1    2 A1    3 A1    4 A1    1 B1    1 B2    5 A1    6 A1
 -1.566  -1.566  -1.329  -0.722  -0.555  -0.555
  2 B1    2 B2    7 A1    8 A1    3 B1    3 B2

 Beta MOs, Restricted
 -- Occupied --
-149.58  -20.58  -17.04  -13.85  -13.85  -13.85   -2.46   -1.58
  1 A1    2 A1    3 A1    4 A1    1 B1    1 B2    5 A1    6 A1
 -1.566  -1.566  -1.329  -0.722  -0.555  -0.555
  2 B1    2 B2    7 A1    8 A1    3 B1    3 B2

          Ground-State Mulliken Net Atomic Charges

     Atom                 Charge (a.u.)
  ----------------------------------------
      1 Ca                    1.864844
      2 O                    -1.334817
      3 H                     0.469973
  ----------------------------------------
  Sum of atomic charges =     1.000000

                    Cartesian Multipole Moments
 -----------------------------------------------------------------
    Charge (ESU x 10^10)
                 4.8032
    Dipole Moment (Debye)
         X       0.0000      Y      -0.0000      Z      -8.7327
       Tot       8.7327
    Quadrupole Moments (Debye-Ang)
        XX     -15.4742     XY       0.0000     YY     -15.4742
        XZ       0.0000     YZ       0.0000     ZZ      -9.7204

 Total job time:  14.79s(wall), 53.83s(cpu)
        *  Thank you very much for using Q-Chem.  Have a nice day.  *
