 Q-Chem 6.0 (devel), Q-Chem, Inc., Pleasanton, CA (2022)
 Q-Chem 6.0.2 for Intel X86 EM64T Linux

User input:
--------------------------------------------------------------
$comment
Magnesium diradical on an acetylen bridge Mg-CC-Mg.

Geometry (similar to): J. Phys. Chem. Lett. 2020, 11, 4, 1297--1304

molecule: charge = +2, multiplicity = 1
$end

$molecule
2 1
Mg    0.0000000    0.0000000   -2.7336438
 C    0.0000000    0.0000000   -0.6242924
 C    0.0000000    0.0000000    0.6242924
Mg    0.0000000    0.0000000    2.7336438
$end

$rem
  method = eom-ccsd
  dea_singlets = [1, 0, 0, 0, 0, 0, 1, 1]
  dea_triplets = [0, 0, 0, 0, 0, 1, 1, 1]
  basis = 6-31G*
! transition properties
  cc_trans_prop = 2
$end
--------------------------------------------------------------

             Standard Nuclear Orientation (Angstroms)
    I     Atom           X                Y                Z
 ----------------------------------------------------------------
    1      Mg      0.0000000000     0.0000000000    -2.7336438000
    2      C       0.0000000000     0.0000000000    -0.6242924000
    3      C       0.0000000000     0.0000000000     0.6242924000
    4      Mg      0.0000000000     0.0000000000     2.7336438000
 ----------------------------------------------------------------

   11    -474.2554152853      2.31e-09  Convergence criterion met
 Total energy in the final basis set =     -474.2554152853
 CCSD total energy          = -474.53792971
        Solving for EOMDEA-CCSD Ag transitions to singlet states
 EOMDEA-CCSD transition 1/Ag
 Total energy = -475.14011125 a.u.  Excitation energy = -16.3862 eV.
        Solving for EOMDEA-CCSD B2u transitions to singlet states
 EOMDEA-CCSD transition 1/B2u
 Total energy = -475.03028592 a.u.  Excitation energy = -13.3977 eV.
        Solving for EOMDEA-CCSD B3u transitions to singlet states
 EOMDEA-CCSD transition 1/B3u
 Total energy = -475.03028592 a.u.  Excitation energy = -13.3977 eV.
        Solving for EOMDEA-CCSD B1u transitions to triplet states
 EOMDEA-CCSD transition 1/B1u
 Total energy = -475.13937351 a.u.  Excitation energy = -16.3661 eV.
        Solving for EOMDEA-CCSD B2u transitions to triplet states
 EOMDEA-CCSD transition 1/B2u
 Total energy = -475.03453450 a.u.  Excitation energy = -13.5133 eV.
        Solving for EOMDEA-CCSD B3u transitions to triplet states
 EOMDEA-CCSD transition 1/B3u
 Total energy = -475.03453450 a.u.  Excitation energy = -13.5133 eV.

             Orbital Energies (a.u.) and Symmetries
 --------------------------------------------------------------

 Alpha MOs, Restricted
 -- Occupied --
-49.466 -49.466 -11.484 -11.481  -4.199  -4.199  -2.720  -2.720
  1 B1u   1 Ag    2 Ag    2 B1u   3 B1u   3 Ag    1 B2g   1 B3g
 -2.720  -2.720  -2.717  -2.717  -1.229  -0.836  -0.733  -0.626
  1 B3u   1 B2u   4 B1u   4 Ag    5 Ag    5 B1u   6 Ag    2 B3u
 -0.626
  2 B2u

 Beta MOs, Restricted
 -- Occupied --
-49.466 -49.466 -11.484 -11.481  -4.199  -4.199  -2.720  -2.720
  1 B1u   1 Ag    2 Ag    2 B1u   3 B1u   3 Ag    1 B2g   1 B3g
 -2.720  -2.720  -2.717  -2.717  -1.229  -0.836  -0.733  -0.626
  1 B3u   1 B2u   4 B1u   4 Ag    5 Ag    5 B1u   6 Ag    2 B3u
 -0.626
  2 B2u

          Ground-State Mulliken Net Atomic Charges

     Atom                 Charge (a.u.)
  ----------------------------------------
      1 Mg                    1.277122
      2 C                    -0.277122
      3 C                    -0.277122
      4 Mg                    1.277122
  ----------------------------------------
  Sum of atomic charges =     2.000000

                    Cartesian Multipole Moments
 -----------------------------------------------------------------
    Charge (ESU x 10^10)
                 9.6064
    Dipole Moment (Debye)
         X       0.0000      Y      -0.0000      Z       0.0000
       Tot       0.0000
    Quadrupole Moments (Debye-Ang)
        XX     -21.8069     XY      -0.0000     YY     -21.8069
        XZ       0.0000     YZ      -0.0000     ZZ      99.3606

 Total job time:  54.59s(wall), 246.91s(cpu)
        *  Thank you very much for using Q-Chem.  Have a nice day.  *
