 Q-Chem 6.0 (devel), Q-Chem, Inc., Pleasanton, CA (2022)
 Q-Chem 6.0.2 for Intel X86 EM64T Linux

User input:
--------------------------------------------------------------
$comment
Magnesium diradical on an acetylen bridge Mg-CC-Mg.

Geometry (similar to): J. Phys. Chem. Lett. 2020, 11, 4, 1297--1304

molecule: charge = +2, multiplicity = 1
$end

$molecule
2 1
Mg 0.0000000000 0.0000000000 -0.9942571725
C  0.0000000000 0.0000000000  1.1148209748
C  0.0000000000 0.0000000000  2.3634057834
Mg 0.0000000000 0.0000000000  4.4730304143
$end

$rem
  method = eom-ccsd
  dea_singlets = [1, 0, 1, 1]
  dea_triplets = [1, 0, 1, 1]
  basis = 6-31G*
  eom_nguess_doubles = 5
! transition properties
  cc_trans_prop = 2
$end
--------------------------------------------------------------

             Standard Nuclear Orientation (Angstroms)
    I     Atom           X                Y                Z
 ----------------------------------------------------------------
    1      Mg      0.0000000000     0.0000000000    -2.7335527128
    2      C       0.0000000000     0.0000000000    -0.6244745655
    3      C       0.0000000000     0.0000000000     0.6241102431
    4      Mg      0.0000000000     0.0000000000     2.7337348740
 ----------------------------------------------------------------

   12    -474.2554152604      1.34e-09  Convergence criterion met
 Total energy in the final basis set =     -474.2554152604
 CCSD total energy          = -474.53792968
        Solving for EOMDEA-CCSD A1 transitions to singlet states
 EOMDEA-CCSD transition 1/A1
 Total energy = -475.14011146 a.u.  Excitation energy = -16.3862 eV.
        Solving for EOMDEA-CCSD B1 transitions to singlet states
 EOMDEA-CCSD transition 1/B1
 Total energy = -475.03029068 a.u.  Excitation energy = -13.3978 eV.
        Solving for EOMDEA-CCSD B2 transitions to singlet states
 EOMDEA-CCSD transition 1/B2
 Total energy = -475.03029068 a.u.  Excitation energy = -13.3978 eV.
        Solving for EOMDEA-CCSD A1 transitions to triplet states
 EOMDEA-CCSD transition 1/A1
 Total energy = -475.13937217 a.u.  Excitation energy = -16.3661 eV.
        Solving for EOMDEA-CCSD B1 transitions to triplet states
 EOMDEA-CCSD transition 1/B1
 Total energy = -475.03453088 a.u.  Excitation energy = -13.5132 eV.
        Solving for EOMDEA-CCSD B2 transitions to triplet states
 EOMDEA-CCSD transition 1/B2
 Total energy = -475.03453088 a.u.  Excitation energy = -13.5132 eV.

             Orbital Energies (a.u.) and Symmetries
 --------------------------------------------------------------

 Alpha MOs, Restricted
 -- Occupied --
-49.466 -49.466 -11.484 -11.481  -4.199  -4.199  -2.720  -2.720
  1 A1    2 A1    3 A1    4 A1    5 A1    6 A1    1 B1    1 B2
 -2.720  -2.720  -2.717  -2.717  -1.229  -0.836  -0.733  -0.626
  2 B1    2 B2    7 A1    8 A1    9 A1   10 A1   11 A1    3 B1
 -0.626
  3 B2

 Beta MOs, Restricted
 -- Occupied --
-49.466 -49.466 -11.484 -11.481  -4.199  -4.199  -2.720  -2.720
  1 A1    2 A1    3 A1    4 A1    5 A1    6 A1    1 B1    1 B2
 -2.720  -2.720  -2.717  -2.717  -1.229  -0.836  -0.733  -0.626
  2 B1    2 B2    7 A1    8 A1    9 A1   10 A1   11 A1    3 B1
 -0.626
  3 B2

          Ground-State Mulliken Net Atomic Charges

     Atom                 Charge (a.u.)
  ----------------------------------------
      1 Mg                    1.277030
      2 C                    -0.277087
      3 C                    -0.277157
      4 Mg                    1.277214
  ----------------------------------------
  Sum of atomic charges =     2.000000

                    Cartesian Multipole Moments
 -----------------------------------------------------------------
    Charge (ESU x 10^10)
                 9.6064
    Dipole Moment (Debye)
         X      -0.0000      Y      -0.0000      Z       0.0032
       Tot       0.0032
    Quadrupole Moments (Debye-Ang)
        XX     -21.8069     XY      -0.0000     YY     -21.8069
        XZ      -0.0000     YZ      -0.0000     ZZ      99.3606

 Total job time:  35.15s(wall), 143.89s(cpu)
        *  Thank you very much for using Q-Chem.  Have a nice day.  *
