 Q-Chem 6.0 (devel), Q-Chem, Inc., Pleasanton, CA (2022)
 Q-Chem 6.0.2 for Intel X86 EM64T Linux

User input:
--------------------------------------------------------------
$comment
Magnesium monohydoxide radical MgOH

Geometry: J. Chem. Phys. 117, 1529 (2002); https://doi.org/10.1063/1.1485721

molecule: charge = +1, multiplicity = 1
$end

$molecule
1 1
    Mg      0.0000000000     0.0000000000    -0.8006190476
    O       0.0000000000     0.0000000000     0.9623809524
    H       0.0000000000     0.0000000000     1.9083809524
$end

$rem
  method = eom-ccsd
  ea_states = [1, 0, 1, 1]
  basis = 6-31G*
! Dyson orbitals
  cc_do_dyson = true
  print_general_basis = true
$end
--------------------------------------------------------------

             Standard Nuclear Orientation (Angstroms)
    I     Atom           X                Y                Z
 ----------------------------------------------------------------
    1      Mg      0.0000000000     0.0000000000    -0.8006190476
    2      O       0.0000000000     0.0000000000     0.9623809524
    3      H       0.0000000000     0.0000000000     1.9083809524
 ----------------------------------------------------------------

   11    -274.7897615621      4.81e-09  Convergence criterion met
 Total energy in the final basis set =     -274.7897615621
 CCSD total energy          = -274.99518123
        Solving for EOMEA-CCSD/MP2 A1 transitions.
 EOMEA transition 1/A1
 Total energy = -275.26088905 a.u.  Excitation energy = -7.2303 eV.
        Solving for EOMEA-CCSD/MP2 B1 transitions.
 EOMEA transition 1/B1
 Total energy = -275.12516305 a.u.  Excitation energy = -3.5370 eV.
        Solving for EOMEA-CCSD/MP2 B2 transitions.
 EOMEA transition 1/B2
 Total energy = -275.12516305 a.u.  Excitation energy = -3.5370 eV.
 EOM-EA-CCSD state  1/A1 -- Reference  transition
 EOM-EA-CCSD state  1/B1 -- Reference  transition
 EOM-EA-CCSD state  1/B2 -- Reference  transition

             Orbital Energies (a.u.) and Symmetries
 --------------------------------------------------------------

 Alpha MOs, Restricted
 -- Occupied --
-49.363 -20.678  -4.098  -2.619  -2.619  -2.617  -1.415  -0.810
  1 A1    2 A1    3 A1    1 B1    1 B2    4 A1    5 A1    6 A1
 -0.618  -0.618
  2 B1    2 B2

 Beta MOs, Restricted
 -- Occupied --
-49.363 -20.678  -4.098  -2.619  -2.619  -2.617  -1.415  -0.810
  1 A1    2 A1    3 A1    1 B1    1 B2    4 A1    5 A1    6 A1
 -0.618  -0.618
  2 B1    2 B2

          Ground-State Mulliken Net Atomic Charges

     Atom                 Charge (a.u.)
  ----------------------------------------
      1 Mg                    1.557482
      2 O                    -1.049761
      3 H                     0.492279
  ----------------------------------------
  Sum of atomic charges =     1.000000

                    Cartesian Multipole Moments
 -----------------------------------------------------------------
    Charge (ESU x 10^10)
                 4.8032
    Dipole Moment (Debye)
         X      -0.0000      Y      -0.0000      Z      -7.8342
       Tot       7.8342
    Quadrupole Moments (Debye-Ang)
        XX     -10.7762     XY       0.0000     YY     -10.7762
        XZ      -0.0000     YZ      -0.0000     ZZ       1.2736

 Total job time:  10.79s(wall), 31.50s(cpu)
        *  Thank you very much for using Q-Chem.  Have a nice day.  *
